/*--------------------------------*- C++ -*----------------------------------*\
| =========                 |                                                 |
| \\      /  F ield         | OpenFOAM: The Open Source CFD Toolbox           |
|  \\    /   O peration     | Version:  v2506                                 |
|   \\  /    A nd           | Website:  www.openfoam.com                      |
|    \\/     M anipulation  |                                                 |
\*---------------------------------------------------------------------------*/
FoamFile
{
    version     2.0;
    format      ascii;
    class       volScalarField;
    object      rho;
}
// * * * * * * * * * * * * * * * * * * * * * * * * * * * * * * * * * * * * * //

dimensions      [1 -3 0 0 0 0 0];

internalField   uniform 4100;

boundaryField
{
    leftWall
    {
      type		zeroGradient;
    }
    rightWall
    {
      type		zeroGradient;
    }
    topWall
    {
    type		zeroGradient;
      }
    bottomWall
    {
	type		zeroGradient;
    }
    front
    {
	type		zeroGradient;
    }
    back
    {
      type		zeroGradient;
    }
    solidInterface
    {
      type		zeroGradient;
    }
}

// ************************************************************************* //
